HEADER
"PSFversion" "1.00"
"design" "(\"22301\" \"INVERTER\" \"schematic\" \"\")"
"simulator" "spectre"
"temperature" "27"
"host" ""
"date" "Aug 28 12:01:44 2025"
"title" ""
"analysisList" "()"
END
