HEADER
"PSFversion" "1.00"
"Time Stamp" "Aug 28 12:01:45 2025"
TYPE
"variable" STRUCT(
"value" FLOAT DOUBLE
) PROP( "key" "element" )
VALUE
"temp" "variable" ( 27 ) PROP( )
END
